    1C
    1UUSER                                                              
    1UDATE              11.april.2018                                   
    1UTIME              11:07:52                                        
    1UHOST                                                              
    1UPGM               CalculiX                                        
    1UVERSION           Version 2.12                             
    1UCOMPILETIME       So 2. Apr 15:03:04 CEST 2017                    
    1UDIR                                                               
    1UDBN                                                               
    1UMAT    1MECHANICALMATERIAL                                        
    2C                          3542                                     1
 -1         1 9.50000E+01 0.00000E+00 1.00000E+01
 -1         2 2.00000E+01 0.00000E+00 1.00000E+01
 -1         3 7.12523E+01-6.00000E+00 1.00000E+01
 -1         4 7.12523E+01 6.00000E+00 1.00000E+01
 -1         5 2.52270E+01-7.45638E+00 1.00000E+01
 -1         6 2.52270E+01 7.45638E+00 1.00000E+01
 -1         7 9.50000E+01 0.00000E+00 0.00000E+00
 -1         8 2.00000E+01 0.00000E+00 0.00000E+00
 -1         9 7.12523E+01-6.00000E+00 0.00000E+00
 -1        10 7.12523E+01 6.00000E+00 0.00000E+00
 -1        11 2.52270E+01-7.45638E+00 0.00000E+00
 -1        12 2.52270E+01 7.45638E+00 0.00000E+00
 -1        13 2.34169E+01-8.75498E+00 1.00000E+01
 -1        14 2.34169E+01 8.75498E+00 1.00000E+01
 -1        15 2.34169E+01-8.75498E+00 0.00000E+00
 -1        16 2.34169E+01 8.75498E+00 0.00000E+00
 -1        17 9.50000E+01 0.00000E+00 5.01000E+00
 -1        18 9.36392E+01 5.03623E+00 0.00000E+00
 -1        19 9.00362E+01 8.63923E+00 0.00000E+00
 -1        20 8.50628E+01 9.99980E+00 0.00000E+00
 -1        21 8.01275E+01 8.73262E+00 0.00000E+00
 -1        22 7.64247E+01 5.14440E+00 0.00000E+00
 -1        23 7.50002E+01 6.28314E-02 0.00000E+00
 -1        24 7.64901E+01-5.25175E+00 0.00000E+00
 -1        25 8.01825E+01-8.76307E+00 0.00000E+00
 -1        26 8.51885E+01-9.99822E+00 0.00000E+00
 -1        27 9.00904E+01-8.60742E+00 0.00000E+00
 -1        28 9.37018E+01-4.92727E+00 0.00000E+00
 -1        29 9.36707E+01 4.98185E+00 1.00000E+01
 -1        30 9.00362E+01 8.63923E+00 1.00000E+01
 -1        31 8.51257E+01 9.99921E+00 1.00000E+01
 -1        32 8.01275E+01 8.73262E+00 1.00000E+01
 -1        33 7.64247E+01 5.14440E+00 1.00000E+01
 -1        34 7.50002E+01 6.28314E-02 1.00000E+01
 -1        35 7.64901E+01-5.25175E+00 1.00000E+01
 -1        36 8.01825E+01-8.76307E+00 1.00000E+01
 -1        37 8.51885E+01-9.99822E+00 1.00000E+01
 -1        38 9.01444E+01-8.57527E+00 1.00000E+01
 -1        39 9.37018E+01-4.92727E+00 1.00000E+01
 -1        40 2.00000E+01 0.00000E+00 4.67000E+00
 -1        41 1.95454E+01 4.24014E+00 0.00000E+00
 -1        42 1.85489E+01 7.47918E+00 0.00000E+00
 -1        43 1.70855E+01 1.03963E+01 0.00000E+00
 -1        44 1.44062E+01 1.38731E+01 0.00000E+00
 -1        45 1.02888E+01 1.71505E+01 0.00000E+00
 -1        46 5.45904E+00 1.92406E+01 0.00000E+00
 -1        47 3.76969E-01 1.99964E+01 0.00000E+00
 -1        48-4.60779E+00 1.94620E+01 0.00000E+00
 -1        49-9.74500E+00 1.74652E+01 0.00000E+00
 -1        50-1.40530E+01 1.42307E+01 0.00000E+00
 -1        51-1.73414E+01 9.96370E+00 0.00000E+00
 -1        52-1.93076E+01 5.21683E+00 0.00000E+00
 -1        53-1.99984E+01-2.51321E-01 0.00000E+00
 -1        54-1.91342E+01-5.82072E+00 0.00000E+00
 -1        55-1.68189E+01-1.08224E+01 0.00000E+00
 -1        56-1.35067E+01-1.47503E+01 0.00000E+00
 -1        57-9.30302E+00-1.77046E+01 0.00000E+00
 -1        58-4.36286E+00-1.95183E+01 0.00000E+00
 -1        59 8.79362E-01-1.99807E+01 0.00000E+00
 -1        60 6.29973E+00-1.89819E+01 0.00000E+00
 -1        61 1.10329E+01-1.66816E+01 0.00000E+00
 -1        62 1.46651E+01-1.35991E+01 0.00000E+00
 -1        63 1.74037E+01-9.85455E+00 0.00000E+00
 -1        64 1.86866E+01-7.12824E+00 0.00000E+00
 -1        65 1.96218E+01-3.87099E+00 0.00000E+00
 -1        66 1.95716E+01 4.11725E+00 1.00000E+01
 -1        67 1.85955E+01 7.36249E+00 1.00000E+01
 -1        68 1.74037E+01 9.85455E+00 1.00000E+01
 -1        69 1.50850E+01 1.31317E+01 1.00000E+01
 -1        70 1.13454E+01 1.64707E+01 1.00000E+01
 -1        71 6.77476E+00 1.88176E+01 1.00000E+01
 -1        72 2.00723E+00 1.98990E+01 1.00000E+01
 -1        73-2.88022E+00 1.97915E+01 1.00000E+01
 -1        74-7.71168E+00 1.84535E+01 1.00000E+01
 -1        75-1.23572E+01 1.57258E+01 1.00000E+01
 -1        76-1.59559E+01 1.20586E+01 1.00000E+01
 -1        77-1.85015E+01 7.59558E+00 1.00000E+01
 -1        78-1.98262E+01 2.63129E+00 1.00000E+01
 -1        79-1.97730E+01-3.00451E+00 1.00000E+01
 -1        80-1.83048E+01-8.05813E+00 1.00000E+01
 -1        81-1.56478E+01-1.24558E+01 1.00000E+01
 -1        82-1.20586E+01-1.59559E+01 1.00000E+01
 -1        83-7.82747E+00-1.84046E+01 1.00000E+01
 -1        84-3.00451E+00-1.97730E+01 1.00000E+01
 -1        85 2.25713E+00-1.98722E+01 1.00000E+01
 -1        86 7.36249E+00-1.85955E+01 1.00000E+01
 -1        87 1.16538E+01-1.62539E+01 1.00000E+01
 -1        88 1.50850E+01-1.31317E+01 1.00000E+01
 -1        89 1.75863E+01-9.52476E+00 1.00000E+01
 -1        90 1.88176E+01-6.77476E+00 1.00000E+01
 -1        91 1.96913E+01-3.50046E+00 1.00000E+01
 -1        92 7.12523E+01-6.00000E+00 4.90000E+00
 -1        93 7.40811E+01-1.02849E+01 0.00000E+00
 -1        94 7.81164E+01-1.33273E+01 0.00000E+00
 -1        95 8.29331E+01-1.48569E+01 0.00000E+00
 -1        96 8.79844E+01-1.47001E+01 0.00000E+00
 -1        97 9.26970E+01-1.28747E+01 0.00000E+00
 -1        98 9.65880E+01-9.52466E+00 0.00000E+00
 -1        99 9.91213E+01-5.05868E+00 0.00000E+00
 -1       100 9.99998E+01-8.19019E-02 0.00000E+00
 -1       101 9.91756E+01 4.90418E+00 0.00000E+00
 -1       102 9.66398E+01 9.46125E+00 0.00000E+00
 -1       103 9.28371E+01 1.27898E+01 0.00000E+00
 -1       104 8.79844E+01 1.47001E+01 0.00000E+00
 -1       105 8.29331E+01 1.48569E+01 0.00000E+00
 -1       106 7.81164E+01 1.33273E+01 0.00000E+00
 -1       107 7.40251E+01 1.02251E+01 0.00000E+00
 -1       108 7.40811E+01-1.02849E+01 1.00000E+01
 -1       109 7.81164E+01-1.33273E+01 1.00000E+01
 -1       110 8.29331E+01-1.48569E+01 1.00000E+01
 -1       111 8.79844E+01-1.47001E+01 1.00000E+01
 -1       112 9.26970E+01-1.28747E+01 1.00000E+01
 -1       113 9.65880E+01-9.52466E+00 1.00000E+01
 -1       114 9.91213E+01-5.05868E+00 1.00000E+01
 -1       115 9.99998E+01-8.19019E-02 1.00000E+01
 -1       116 9.91756E+01 4.90418E+00 1.00000E+01
 -1       117 9.66398E+01 9.46125E+00 1.00000E+01
 -1       118 9.28371E+01 1.27898E+01 1.00000E+01
 -1       119 8.79844E+01 1.47001E+01 1.00000E+01
 -1       120 8.29331E+01 1.48569E+01 1.00000E+01
 -1       121 7.81164E+01 1.33273E+01 1.00000E+01
 -1       122 7.40251E+01 1.02251E+01 1.00000E+01
 -1       123 2.63316E+01-7.42143E+00 0.00000E+00
 -1       124 2.79885E+01-7.36900E+00 0.00000E+00
 -1       125 3.03818E+01-7.29327E+00 0.00000E+00
 -1       126 3.36036E+01-7.19132E+00 0.00000E+00
 -1       127 3.75618E+01-7.06607E+00 0.00000E+00
 -1       128 4.29007E+01-6.89713E+00 0.00000E+00
 -1       129 5.04949E+01-6.65683E+00 0.00000E+00
 -1       130 5.96539E+01-6.36701E+00 0.00000E+00
 -1       131 6.61435E+01-6.16166E+00 0.00000E+00
 -1       132 2.52270E+01-7.45638E+00 1.01000E+00
 -1       133 2.52270E+01-7.45638E+00 2.01000E+00
 -1       134 2.52270E+01-7.45638E+00 3.01000E+00
 -1       135 2.52270E+01-7.45638E+00 4.01000E+00
 -1       136 2.52270E+01-7.45638E+00 5.01000E+00
 -1       137 2.52270E+01-7.45638E+00 6.01000E+00
 -1       138 2.52270E+01-7.45638E+00 7.00000E+00
 -1       139 2.52270E+01-7.45638E+00 8.00000E+00
 -1       140 2.52270E+01-7.45638E+00 9.00000E+00
 -1       141 2.63316E+01-7.42143E+00 1.00000E+01
 -1       142 2.79885E+01-7.36900E+00 1.00000E+01
 -1       143 3.03818E+01-7.29327E+00 1.00000E+01
 -1       144 3.36036E+01-7.19132E+00 1.00000E+01
 -1       145 3.75618E+01-7.06607E+00 1.00000E+01
 -1       146 4.29007E+01-6.89713E+00 1.00000E+01
 -1       147 5.04949E+01-6.65683E+00 1.00000E+01
 -1       148 5.96539E+01-6.36701E+00 1.00000E+01
 -1       149 6.61435E+01-6.16166E+00 1.00000E+01
 -1       150 2.63776E+01 7.41997E+00 0.00000E+00
 -1       151 2.81266E+01 7.36463E+00 0.00000E+00
 -1       152 3.05199E+01 7.28890E+00 0.00000E+00
 -1       153 3.44781E+01 7.16365E+00 0.00000E+00
 -1       154 3.97710E+01 6.99616E+00 0.00000E+00
 -1       155 4.63066E+01 6.78936E+00 0.00000E+00
 -1       156 5.54196E+01 6.50099E+00 0.00000E+00
 -1       157 6.49468E+01 6.19952E+00 0.00000E+00
 -1       158 2.52270E+01 7.45638E+00 1.01000E+00
 -1       159 2.52270E+01 7.45638E+00 2.01000E+00
 -1       160 2.52270E+01 7.45638E+00 3.01000E+00
 -1       161 2.52270E+01 7.45638E+00 4.01000E+00
 -1       162 2.52270E+01 7.45638E+00 5.01000E+00
 -1       163 2.52270E+01 7.45638E+00 6.01000E+00
 -1       164 2.52270E+01 7.45638E+00 7.00000E+00
 -1       165 2.52270E+01 7.45638E+00 8.00000E+00
 -1       166 2.52270E+01 7.45638E+00 9.00000E+00
 -1       167 2.65157E+01 7.41560E+00 1.00000E+01
 -1       168 2.85868E+01 7.35006E+00 1.00000E+01
 -1       169 3.21308E+01 7.23792E+00 1.00000E+01
 -1       170 3.73777E+01 7.07190E+00 1.00000E+01
 -1       171 4.40973E+01 6.85926E+00 1.00000E+01
 -1       172 5.31183E+01 6.57381E+00 1.00000E+01
 -1       173 6.40263E+01 6.22865E+00 1.00000E+01
 -1       174 2.28371E+01 1.01718E+01 1.00000E+01
 -1       175 2.19090E+01 1.20414E+01 1.00000E+01
 -1       176 2.02736E+01 1.46280E+01 1.00000E+01
 -1       177 1.74602E+01 1.78925E+01 1.00000E+01
 -1       178 1.33136E+01 2.11601E+01 1.00000E+01
 -1       179 8.83415E+00 2.33871E+01 1.00000E+01
 -1       180 3.45051E+00 2.47607E+01 1.00000E+01
 -1       181-1.54831E+00 2.49520E+01 1.00000E+01
 -1       182-6.48513E+00 2.41442E+01 1.00000E+01
 -1       183-1.14107E+01 2.22440E+01 1.00000E+01
 -1       184-1.56109E+01 1.95269E+01 1.00000E+01
 -1       185-1.90966E+01 1.61345E+01 1.00000E+01
 -1       186-2.18593E+01 1.21313E+01 1.00000E+01
 -1       187-2.38370E+01 7.53639E+00 1.00000E+01
 -1       188-2.48603E+01 2.63969E+00 1.00000E+01
 -1       189-2.48881E+01-2.36271E+00 1.00000E+01
 -1       190-2.39596E+01-7.13721E+00 1.00000E+01
 -1       191-2.19265E+01-1.20094E+01 1.00000E+01
 -1       192-1.91861E+01-1.60279E+01 1.00000E+01
 -1       193-1.56109E+01-1.95269E+01 1.00000E+01
 -1       194-1.11623E+01-2.23697E+01 1.00000E+01
 -1       195-6.48513E+00-2.41442E+01 1.00000E+01
 -1       196-1.68721E+00-2.49430E+01 1.00000E+01
 -1       197 3.31260E+00-2.47796E+01 1.00000E+01
 -1       198 8.04811E+00-2.36691E+01 1.00000E+01
 -1       199 1.27194E+01-2.15225E+01 1.00000E+01
 -1       200 1.68529E+01-1.84657E+01 1.00000E+01
 -1       201 2.00265E+01-1.49646E+01 1.00000E+01
 -1       202 2.19090E+01-1.20414E+01 1.00000E+01
 -1       203 2.28934E+01-1.00445E+01 1.00000E+01
 -1       204 2.41244E+01 7.83033E+00 1.00000E+01
 -1       205 2.41244E+01-7.83033E+00 1.00000E+01
 -1       206 2.41244E+01-7.83033E+00 0.00000E+00
 -1       207 2.34169E+01-8.75498E+00 1.01000E+00
 -1       208 2.34169E+01-8.75498E+00 2.01000E+00
 -1       209 2.34169E+01-8.75498E+00 3.01000E+00
 -1       210 2.34169E+01-8.75498E+00 4.01000E+00
 -1       211 2.34169E+01-8.75498E+00 5.01000E+00
 -1       212 2.34169E+01-8.75498E+00 6.01000E+00
 -1       213 2.34169E+01-8.75498E+00 7.00000E+00
 -1       214 2.34169E+01-8.75498E+00 8.00000E+00
 -1       215 2.34169E+01-8.75498E+00 9.00000E+00
 -1       216 2.41244E+01 7.83033E+00 0.00000E+00
 -1       217 2.34169E+01 8.75498E+00 1.01000E+00
 -1       218 2.34169E+01 8.75498E+00 2.01000E+00
 -1       219 2.34169E+01 8.75498E+00 3.01000E+00
 -1       220 2.34169E+01 8.75498E+00 4.01000E+00
 -1       221 2.34169E+01 8.75498E+00 5.01000E+00
 -1       222 2.34169E+01 8.75498E+00 6.01000E+00
 -1       223 2.34169E+01 8.75498E+00 7.00000E+00
 -1       224 2.34169E+01 8.75498E+00 8.00000E+00
 -1       225 2.34169E+01 8.75498E+00 9.00000E+00
 -1       226 2.28371E+01 1.01718E+01 0.00000E+00
 -1       227 2.19090E+01 1.20414E+01 0.00000E+00
 -1       228 2.03548E+01 1.45149E+01 0.00000E+00
 -1       229 1.74602E+01 1.78925E+01 0.00000E+00
 -1       230 1.34312E+01 2.10856E+01 0.00000E+00
 -1       231 8.96423E+00 2.33376E+01 0.00000E+00
 -1       232 3.58831E+00 2.47411E+01 0.00000E+00
 -1       233-1.40936E+00 2.49602E+01 0.00000E+00
 -1       234-6.35060E+00 2.41799E+01 0.00000E+00
 -1       235-1.14107E+01 2.22440E+01 0.00000E+00
 -1       236-1.55020E+01 1.96135E+01 0.00000E+00
 -1       237-1.90064E+01 1.62406E+01 0.00000E+00
 -1       238-2.18593E+01 1.21313E+01 0.00000E+00
 -1       239-2.37947E+01 7.66899E+00 0.00000E+00
 -1       240-2.48452E+01 2.77806E+00 0.00000E+00
 -1       241-2.49009E+01-2.22410E+00 0.00000E+00
 -1       242-2.39596E+01-7.13721E+00 0.00000E+00
 -1       243-2.19931E+01-1.18872E+01 0.00000E+00
 -1       244-1.91861E+01-1.60279E+01 0.00000E+00
 -1       245-1.56109E+01-1.95269E+01 0.00000E+00
 -1       246-1.12867E+01-2.23072E+01 0.00000E+00
 -1       247-6.61945E+00-2.41077E+01 0.00000E+00
 -1       248-1.68721E+00-2.49430E+01 0.00000E+00
 -1       249 3.17458E+00-2.47976E+01 0.00000E+00
 -1       250 7.91620E+00-2.37136E+01 0.00000E+00
 -1       251 1.25994E+01-2.15929E+01 0.00000E+00
 -1       252 1.68529E+01-1.84657E+01 0.00000E+00
 -1       253 2.00265E+01-1.49646E+01 0.00000E+00
 -1       254 2.19090E+01-1.20414E+01 0.00000E+00
 -1       255 2.28934E+01-1.00445E+01 0.00000E+00
 -1       256 9.23738E+01 6.75476E+00 5.00293E+00
 -1       257 8.77400E+01 9.61730E+00 4.99714E+00
 -1       258 8.25362E+01 9.69172E+00 4.99955E+00
 -1       259 7.80180E+01 7.15899E+00 4.99993E+00
 -1       260 7.53556E+01 2.64300E+00 4.99999E+00
 -1       261 7.53722E+01-2.70286E+00 5.00001E+00
 -1       262 7.80818E+01-7.22068E+00 5.00008E+00
 -1       263 8.26222E+01-9.71320E+00 5.00049E+00
 -1       264 8.78308E+01-9.59096E+00 5.00317E+00
 -1       265 9.24334E+01-6.68915E+00 4.99924E+00
 -1       266 1.96917E+01 3.49798E+00 5.88781E+00
 -1       267 1.97553E+01-3.11914E+00 5.66056E+00
 -1       268 1.77991E+01 9.12090E+00 3.30641E+00
 -1       269 1.59555E+01 1.20591E+01 3.03705E+00
 -1       270 1.34284E+01 1.48216E+01 4.96897E+00
 -1       271 8.73709E+00 1.79906E+01 4.83608E+00
 -1       272 3.74868E+00 1.96455E+01 4.77465E+00
 -1       273-1.39124E+00 1.99516E+01 4.76373E+00
 -1       274-6.45239E+00 1.89306E+01 4.82119E+00
 -1       275-1.12417E+01 1.65416E+01 4.79312E+00
 -1       276-1.53298E+01 1.28451E+01 4.80203E+00
 -1       277-1.85020E+01 7.59448E+00 5.10818E+00
 -1       278-1.99440E+01 1.49590E+00 4.99336E+00
 -1       279-1.95736E+01-4.10796E+00 4.78025E+00
 -1       280-1.77438E+01-9.22813E+00 4.83381E+00
 -1       281-1.47571E+01-1.34992E+01 4.75737E+00
 -1       282-1.08373E+01-1.68093E+01 4.73608E+00
 -1       283-6.19496E+00-1.90164E+01 4.74710E+00
 -1       284-1.09843E+00-1.99698E+01 4.77615E+00
 -1       285 4.18074E+00-1.95582E+01 4.77031E+00
 -1       286 9.19277E+00-1.77621E+01 4.87314E+00
 -1       287 1.33590E+01-1.48841E+01 4.92667E+00
 -1       288 1.67538E+01-1.09229E+01 5.14954E+00
 -1       289 1.85762E+01 7.41109E+00 6.86075E+00
 -1       290 1.89418E+01 6.41929E+00 3.27377E+00
 -1       291 1.81342E+01-8.43510E+00 2.65749E+00
 -1       292 1.91009E+01-5.92934E+00 3.26307E+00
 -1       293 1.91475E+01-5.77690E+00 6.94055E+00
 -1       294 1.65578E+01 1.12178E+01 6.52443E+00
 -1       295 1.82132E+01-8.26309E+00 7.56072E+00
 -1       296 1.83359E+01-7.98712E+00 5.06514E+00
 -1       297 7.43860E+01 1.05992E+01 4.66938E+00
 -1       298 7.55368E+01-1.16382E+01 4.79666E+00
 -1       299 8.54243E+01-1.49940E+01 4.76474E+00
 -1       300 9.47940E+01-1.13612E+01 4.76436E+00
 -1       301 9.97713E+01-2.60933E+00 4.76748E+00
 -1       302 9.81146E+01 7.28064E+00 4.82695E+00
 -1       303 8.53568E+01 1.49958E+01 4.79193E+00
 -1       304 8.00243E+01 1.41507E+01 4.78162E+00
 -1       305 9.48781E+01 1.12882E+01 4.79381E+00
 -1       306 9.97918E+01 2.49077E+00 4.82303E+00
 -1       307 9.04205E+01-1.39864E+01 4.76477E+00
 -1       308 8.03141E+01-1.42493E+01 4.76920E+00
 -1       309 9.80426E+01-7.40889E+00 4.76694E+00
 -1       310 9.04591E+01 1.39713E+01 4.95594E+00
 -1       311 2.72651E+01-7.39189E+00 1.34764E+00
 -1       312 3.15972E+01-7.25481E+00 2.81122E+00
 -1       313 3.91320E+01-7.01638E+00 4.94104E+00
 -1       314 2.60958E+01-7.42889E+00 1.34901E+00
 -1       315 2.62743E+01-7.42324E+00 2.31762E+00
 -1       316 2.62519E+01-7.42395E+00 3.42551E+00
 -1       317 2.61967E+01-7.42570E+00 4.52423E+00
 -1       318 2.62258E+01-7.42477E+00 5.55135E+00
 -1       319 2.62268E+01-7.42474E+00 6.61262E+00
 -1       320 2.61181E+01-7.42818E+00 7.66278E+00
 -1       321 2.58939E+01-7.43528E+00 8.50092E+00
 -1       322 2.59349E+01-7.43398E+00 9.28259E+00
 -1       323 2.90086E+01-7.33672E+00 7.74062E+00
 -1       324 3.18435E+01-7.24701E+00 6.62006E+00
 -1       325 3.54927E+01-7.13154E+00 7.06472E+00
 -1       326 2.91566E+01-7.33204E+00 1.94006E+00
 -1       327 3.49280E+01-7.14941E+00 3.30371E+00
 -1       328 2.69778E+01-7.40098E+00 8.77286E+00
 -1       329 2.91485E+01-7.33229E+00 4.56701E+00
 -1       330 2.76743E+01-7.37894E+00 2.77728E+00
 -1       331 2.73116E+01-7.39042E+00 3.96047E+00
 -1       332 2.72890E+01-7.39113E+00 5.04232E+00
 -1       333 2.76966E+01-7.37824E+00 6.20232E+00
 -1       334 2.72455E+01-7.39251E+00 7.40709E+00
 -1       335 2.74006E+01 7.38760E+00 1.32711E+00
 -1       336 2.93273E+01 7.32663E+00 1.88181E+00
 -1       337 3.68794E+01 7.08766E+00 4.15957E+00
 -1       338 4.28242E+01 6.89955E+00 4.88370E+00
 -1       339 2.61022E+01 7.42868E+00 1.32946E+00
 -1       340 2.63170E+01 7.42189E+00 3.43895E+00
 -1       341 2.61808E+01 7.42620E+00 5.55322E+00
 -1       342 2.62247E+01 7.42481E+00 8.12294E+00
 -1       343 2.79851E+01 7.36911E+00 8.43280E+00
 -1       344 3.38224E+01 7.18440E+00 6.92355E+00
 -1       345 3.21149E+01 7.23843E+00 3.43197E+00
 -1       346 2.61440E+01 7.42736E+00 6.71674E+00
 -1       347 2.63206E+01 7.42177E+00 2.32706E+00
 -1       348 2.62675E+01 7.42346E+00 4.54986E+00
 -1       349 3.05656E+01 7.28745E+00 7.28402E+00
 -1       350 2.71647E+01 7.39506E+00 6.20976E+00
 -1       351 2.77713E+01 7.37587E+00 2.76067E+00
 -1       352 2.76163E+01 7.38078E+00 5.15783E+00
 -1       353 2.72422E+01 7.39261E+00 7.33534E+00
 -1       354 2.74717E+01 7.38535E+00 3.99379E+00
 -1       355 2.93507E+01 7.32589E+00 4.33412E+00
 -1       356 2.86521E+01 7.34800E+00 6.52544E+00
 -1       357 2.20768E+01 8.74028E+00 1.00000E+01
 -1       358 1.90793E+01 1.18700E+01 1.00000E+01
 -1       359 1.93315E+01-1.16137E+01 1.00000E+01
 -1       360 2.19651E+01-8.84248E+00 1.00000E+01
 -1       361 2.28899E+01 7.80995E+00 1.00000E+01
 -1       362 2.44717E+01 6.71844E+00 1.00000E+01
 -1       363 2.28941E+01-7.84405E+00 1.00000E+01
 -1       364 2.44350E+01-6.72264E+00 1.00000E+01
 -1       365 2.56285E+01 6.12028E+00 1.00000E+01
 -1       366 2.72727E+01 5.22584E+00 1.00000E+01
 -1       367 3.45037E+01 2.55741E+00 1.00000E+01
 -1       368 2.55794E+01-6.15538E+00 1.00000E+01
 -1       369 2.94328E+01-4.95345E+00 1.00000E+01
 -1       370 3.53982E+01-3.13154E+00 1.00000E+01
 -1       371 6.76948E+01-1.65086E-01 1.00000E+01
 -1       372 2.30550E+01 1.66386E+00 1.00000E+01
 -1       373 2.04911E+01 9.60086E+00 1.00000E+01
 -1       374 2.00544E+01-8.90665E+00 1.00000E+01
 -1       375 2.19332E+01-4.93126E+00 1.00000E+01
 -1       376 2.22733E+01-1.75918E+00 1.00000E+01
 -1       377 2.11988E+01-1.02533E+01 1.00000E+01
 -1       378 3.01059E+01 3.64555E+00 1.00000E+01
 -1       379 2.71903E+01-5.59510E+00 1.00000E+01
 -1       380 3.20745E+01-4.66306E+00 1.00000E+01
 -1       381 4.08529E+01-3.90369E-01 1.00000E+01
 -1       382 2.31945E+01 6.56337E+00 1.00000E+01
 -1       383 2.31365E+01-6.63390E+00 1.00000E+01
 -1       384 2.11868E+01 7.02151E+00 1.00000E+01
 -1       385 2.38432E+01-3.41444E+00 1.00000E+01
 -1       386 2.41770E+01 5.49651E+00 1.00000E+01
 -1       387 2.57454E+01-4.10289E+00 1.00000E+01
 -1       388 3.13747E+01-1.27121E+00 1.00000E+01
 -1       389 2.24998E+01 4.65029E+00 1.00000E+01
 -1       390 2.78483E+01-2.93539E+00 1.00000E+01
 -1       391 2.40649E+01-5.27596E+00 1.00000E+01
 -1       392 2.53529E+01-1.12725E+00 1.00000E+01
 -1       393 2.13885E+01-7.26759E+00 1.00000E+01
 -1       394 2.49761E+01 4.02216E+00 1.00000E+01
 -1       395 2.65745E+01 2.22414E+00 1.00000E+01
 -1       396 2.83337E+01 9.74906E-02 1.00000E+01
 -1       397 2.41233E+01-7.83114E+00 1.39941E+00
 -1       398 2.40877E+01-7.85728E+00 3.49998E+00
 -1       399 2.40823E+01-7.86133E+00 4.50688E+00
 -1       400 2.40814E+01-7.86207E+00 5.51001E+00
 -1       401 2.40813E+01-7.86211E+00 6.51384E+00
 -1       402 2.40820E+01-7.86159E+00 7.53213E+00
 -1       403 2.40863E+01-7.85836E+00 8.60776E+00
 -1       404 2.41175E+01-7.83530E+00 2.47795E+00
 -1       405 2.41235E+01 7.83095E+00 1.39942E+00
 -1       406 2.40961E+01 7.85100E+00 3.50042E+00
 -1       407 2.40953E+01 7.85162E+00 5.51043E+00
 -1       408 2.40930E+01 7.85327E+00 7.53267E+00
 -1       409 2.41192E+01 7.83404E+00 8.60946E+00
 -1       410 2.41273E+01 7.82826E+00 4.50741E+00
 -1       411 2.41191E+01 7.83415E+00 2.47806E+00
 -1       412 2.41132E+01 7.83840E+00 6.51428E+00
 -1       413 2.20439E+01 8.95721E+00 0.00000E+00
 -1       414 2.04422E+01 9.94745E+00 0.00000E+00
 -1       415 1.90664E+01-1.21211E+01 0.00000E+00
 -1       416 2.21618E+01-8.82166E+00 0.00000E+00
 -1       417 2.24726E+01 7.71733E+00 0.00000E+00
 -1       418 2.43904E+01 6.53987E+00 0.00000E+00
 -1       419 2.28372E+01-7.88971E+00 0.00000E+00
 -1       420 2.43496E+01-6.55719E+00 0.00000E+00
 -1       421 2.55730E+01 6.10624E+00 0.00000E+00
 -1       422 2.92969E+01 4.89926E+00 0.00000E+00
 -1       423 3.68658E+01 3.06083E+00 0.00000E+00
 -1       424 5.03658E+01-2.02737E-01 0.00000E+00
 -1       425 2.56341E+01-6.45911E+00 0.00000E+00
 -1       426 2.68808E+01-6.38233E+00 0.00000E+00
 -1       427 3.19544E+01-4.16622E+00 0.00000E+00
 -1       428 3.54537E+01-2.17435E+00 0.00000E+00
 -1       429 4.16909E+01-1.59723E-01 0.00000E+00
 -1       430 6.11877E+01 2.03181E-02 0.00000E+00
 -1       431 6.84114E+01-1.02197E-01 0.00000E+00
 -1       432 2.42157E+01 1.77650E+00 0.00000E+00
 -1       433 2.10166E+01 6.23066E+00 0.00000E+00
 -1       434 2.05830E+01-9.68520E+00 0.00000E+00
 -1       435 2.28859E+01-2.29643E+00 0.00000E+00
 -1       436 1.89772E+01 1.22459E+01 0.00000E+00
 -1       437 2.71783E+01 5.60544E+00 0.00000E+00
 -1       438 3.27486E+01 3.27802E+00 0.00000E+00
 -1       439 2.91879E+01-3.30429E+00 0.00000E+00
 -1       440 2.15009E+01-5.32014E+00 0.00000E+00
 -1       441 2.30409E+01 6.26073E+00 0.00000E+00
 -1       442 2.29589E+01-6.58237E+00 0.00000E+00
 -1       443 2.13238E+01-7.54621E+00 0.00000E+00
 -1       444 2.69478E+01-4.88396E-01 0.00000E+00
 -1       445 2.57726E+01 4.24954E+00 0.00000E+00
 -1       446 2.95739E+01 1.82321E+00 0.00000E+00
 -1       447 3.12641E+01-8.77286E-01 0.00000E+00
 -1       448 2.08614E+01 8.10601E+00 0.00000E+00
 -1       449 2.49956E+01-5.30862E+00 0.00000E+00
 -1       450 2.41132E+01 4.90796E+00 0.00000E+00
 -1       451 2.63173E+01-5.31109E+00 0.00000E+00
 -1       452 2.34983E+01-4.79784E+00 0.00000E+00
 -1       453 2.72481E+01 2.88049E+00 0.00000E+00
 -1       454 2.59480E+01-3.46826E+00 0.00000E+00
 -1       455 2.20979E+01 3.94257E+00 0.00000E+00
 -1       456 2.80040E+01-5.30944E+00 0.00000E+00
 -1       457 2.24075E+01 1.10862E+01 1.65057E+00
 -1       458 1.93058E+01 1.58835E+01 5.01769E+00
 -1       459 1.12603E+01 2.23205E+01 4.87820E+00
 -1       460 1.09921E+00 2.49758E+01 4.76785E+00
 -1       461-8.93839E+00 2.33475E+01 4.75489E+00
 -1       462-1.73664E+01 1.79835E+01 4.75258E+00
 -1       463-2.29558E+01 9.90105E+00 4.77146E+00
 -1       464-2.49992E+01 2.02383E-01 4.76690E+00
 -1       465-2.30854E+01-9.59494E+00 4.96215E+00
 -1       466-1.74547E+01-1.78979E+01 4.75816E+00
 -1       467-8.98064E+00-2.33313E+01 4.76641E+00
 -1       468 7.69000E-01-2.49882E+01 4.76277E+00
 -1       469 1.05089E+01-2.26840E+01 4.76701E+00
 -1       470 1.88503E+01-1.64216E+01 4.86800E+00
 -1       471 2.22939E+01-1.13130E+01 1.67528E+00
 -1       472 2.29330E+01 9.95371E+00 2.44194E+00
 -1       473 2.30195E+01 9.75216E+00 3.46456E+00
 -1       474 2.29015E+01 1.00260E+01 4.46458E+00
 -1       475 2.29091E+01 1.00086E+01 5.55294E+00
 -1       476 2.30505E+01 9.67867E+00 6.52325E+00
 -1       477 2.29641E+01 9.88182E+00 7.49628E+00
 -1       478 2.30339E+01 9.71799E+00 8.63168E+00
 -1       479 2.29611E+01-9.88886E+00 1.38149E+00
 -1       480 2.29386E+01-9.94079E+00 3.62504E+00
 -1       481 2.30221E+01-9.74600E+00 5.56827E+00
 -1       482 2.28714E+01-1.00944E+01 8.19688E+00
 -1       483 2.14224E+01 1.28872E+01 7.08527E+00
 -1       484 2.13512E+01 1.30049E+01 3.13310E+00
 -1       485 1.56697E+01 1.94797E+01 4.90042E+00
 -1       486 6.28886E+00 2.41961E+01 4.86202E+00
 -1       487-3.98662E+00 2.46801E+01 4.76541E+00
 -1       488-1.34683E+01 2.10619E+01 4.77238E+00
 -1       489-2.05605E+01 1.42220E+01 4.75343E+00
 -1       490-2.44602E+01 5.16695E+00 4.76289E+00
 -1       491-2.45425E+01-4.76067E+00 4.77665E+00
 -1       492-2.06868E+01-1.40377E+01 4.76137E+00
 -1       493-1.34931E+01-2.10461E+01 4.77788E+00
 -1       494-4.16908E+00-2.46499E+01 4.75110E+00
 -1       495 5.69729E+00-2.43422E+01 4.75696E+00
 -1       496 1.50811E+01-1.99389E+01 4.85049E+00
 -1       497 2.09632E+01-1.36215E+01 2.83829E+00
 -1       498 2.29863E+01 9.82995E+00 1.35148E+00
 -1       499 2.30976E+01-9.56560E+00 4.56535E+00
 -1       500 2.28386E+01-1.01685E+01 2.51324E+00
 -1       501 2.29321E+01-9.95591E+00 6.71946E+00
 -1       502 2.09350E+01-1.36647E+01 6.44452E+00
 -1       503 2.24406E+01 1.10191E+01 3.34488E+00
 -1       504 2.25334E+01-1.08280E+01 5.74775E+00
 -1       505 2.22067E+01 1.14832E+01 5.04903E+00
 -1       506 2.24713E+01 1.09564E+01 6.72777E+00
 -1       507 2.26950E+01-1.04850E+01 4.70616E+00
 -1       508 2.20158E+01-1.18449E+01 4.13274E+00
 -1       509 2.20832E+01-1.17188E+01 7.05876E+00
 -1       510 2.24235E+01 1.10539E+01 8.38859E+00
 -1       511 2.75652E+01-4.17966E+00 7.55624E+00
 -1       512 2.39834E+01-3.89862E+00 6.51601E+00
 -1       513 2.47753E+01-3.11516E+00 4.53508E+00
 -1       514 2.37351E+01-5.95571E-01 6.77265E+00
 -1       515 3.03957E+01-5.42083E+00 6.98437E+00
 -1       516 2.69312E+01 1.08264E+00 6.73079E+00
 -1       517 2.89883E+01-5.43774E+00 2.18326E+00
 -1       518 2.32822E+01 2.89961E+00 7.72409E+00
 -1       519 2.49350E+01 1.91661E+00 3.36897E+00
 -1       520 3.33655E+01-4.12198E+00 6.92278E+00
 -1       521 2.93702E+01-2.80893E+00 6.86380E+00
 -1       522 2.65539E+01-5.28220E+00 8.37089E+00
 -1       523 2.48510E+01-5.13014E+00 7.98538E+00
 -1       524 2.09047E+01-9.74622E+00 7.08529E+00
 -1       525 2.17560E+01-7.73495E+00 8.24797E+00
 -1       526 2.10235E+01-7.45195E+00 6.41423E+00
 -1       527 2.14493E+01-6.95069E+00 4.72636E+00
 -1       528 2.30769E+01-5.59439E+00 8.05993E+00
 -1       529 2.30061E+01-9.69678E-02 3.35464E+00
 -1       530 2.72360E+01-9.32439E-01 3.65793E+00
 -1       531 2.30576E+01-3.11525E+00 8.00478E+00
 -1       532 2.30525E+01-5.72311E+00 6.14582E+00
 -1       533 2.33728E+01-5.60808E+00 4.59461E+00
 -1       534 2.49469E+01-5.33222E+00 5.84858E+00
 -1       535 2.52972E+01-6.37155E+00 4.72898E+00
 -1       536 2.60139E+01-2.63551E+00 8.18759E+00
 -1       537 3.39362E+01 5.16406E-01 4.96685E+00
 -1       538 3.18420E+01-4.24677E+00 3.67667E+00
 -1       539 3.03771E+01 2.37554E+00 5.23108E+00
 -1       540 2.96500E+01-2.58516E+00 3.45884E+00
 -1       541 2.83625E+01-5.66028E+00 8.32157E+00
 -1       542 2.66528E+01-5.91669E+00 6.47005E+00
 -1       543 2.74941E+01 2.69143E+00 2.84160E+00
 -1       544 2.48256E+01 5.97973E+00 8.11456E+00
 -1       545 2.20181E+01 5.00683E+00 6.97851E+00
 -1       546 2.19859E+01 6.45684E+00 8.35052E+00
 -1       547 2.27988E+01 7.11341E+00 6.48049E+00
 -1       548 2.20442E+01 8.52063E+00 7.95907E+00
 -1       549 2.16272E+01 8.54098E+00 5.64015E+00
 -1       550 2.81706E+01 5.35723E+00 7.66469E+00
 -1       551 2.67100E+01-5.97746E+00 1.47908E+00
 -1       552 2.47217E+01-5.35448E+00 1.58166E+00
 -1       553 2.42504E+01-6.66237E+00 3.60984E+00
 -1       554 2.18682E+01-7.59811E+00 1.32081E+00
 -1       555 2.16444E+01-8.60624E+00 2.75393E+00
 -1       556 2.31651E+01-6.49901E+00 1.04655E+00
 -1       557 2.25212E+01-5.96902E+00 2.92507E+00
 -1       558 2.15889E+01-5.11742E+00 1.57815E+00
 -1       559 2.23957E+01-3.35837E+00 2.83688E+00
 -1       560 2.71395E+01-3.78829E+00 1.70161E+00
 -1       561 2.49607E+01-5.11600E+00 3.59919E+00
 -1       562 2.67230E+01-5.75447E+00 2.97915E+00
 -1       563 2.65728E+01 5.50824E+00 1.30919E+00
 -1       564 2.17640E+01 8.85661E+00 2.10455E+00
 -1       565 2.49937E+01 6.25114E+00 1.50276E+00
 -1       566 2.48501E+01 4.15982E+00 1.86650E+00
 -1       567 2.46503E+01 6.25726E+00 2.90156E+00
 -1       568 2.29669E+01 6.66455E+00 1.53484E+00
 -1       569 2.27245E+01 7.35164E+00 3.72648E+00
 -1       570 2.22191E+01 4.02602E+00 2.79164E+00
 -1       571 2.66684E+01 5.87667E+00 3.05455E+00
 -1       572 2.07965E+01-1.02024E+01 4.44340E+00
 -1       573 2.51323E+01-3.39232E+00 2.31794E+00
 -1       574 2.51573E+01-6.99893E-01 1.80885E+00
 -1       575 2.23061E+01-8.88895E+00 4.34510E+00
 -1       576 2.13092E+01-4.97945E+00 4.78341E+00
 -1       577 2.16166E+01-5.24998E+00 6.94170E+00
 -1       578 2.31097E+01-7.60095E+00 4.87269E+00
 -1       579 2.65054E+01-5.78464E+00 4.83341E+00
 -1       580 2.25165E+01-3.24605E+00 5.25851E+00
 -1       581 2.22094E+01-8.53425E+00 5.97974E+00
 -1       582 2.30547E+01-7.18877E+00 5.87198E+00
 -1       583 2.81662E+01-5.62000E+00 6.18467E+00