    1C
    1UUSER                                                              
    1UDATE              11.april.2018                                   
    1UTIME              16:10:22                                        
    1UHOST                                                              
    1UPGM               CalculiX                                        
    1UVERSION           Version 2.11                             
    1UCOMPILETIME       So 31. Jul 13:26:31 CEST 2016                    
    1UDIR                                                               
    1UDBN                                                               
    1UMAT    1SOLIDMATERIAL                                             
    2C                          6666                                     1
 -1         1 2.24177E+01 1.10656E+01 0.00000E+00
 -1         2 2.24177E+01-1.10656E+01 0.00000E+00
 -1         3 2.24177E+01 1.10656E+01 1.00000E+01
 -1         4 2.24177E+01-1.10656E+01 1.00000E+01
 -1         5 2.41331E+01 9.95241E+00 0.00000E+00
 -1         6 2.41331E+01-9.95241E+00 0.00000E+00
 -1         7 8.70096E+01 7.50000E+00 0.00000E+00
 -1         8 8.70096E+01-7.50000E+00 0.00000E+00
 -1         9 5.96880E+01 3.60344E-13 0.00000E+00
 -1        10 1.50000E+01 0.00000E+00 0.00000E+00
 -1        11 1.10000E+02 8.05341E-26 0.00000E+00
 -1        12 2.41331E+01 9.95241E+00 1.00000E+01
 -1        13 2.41331E+01-9.95241E+00 1.00000E+01
 -1        14 8.70096E+01 7.50000E+00 1.00000E+01
 -1        15 8.70096E+01-7.50000E+00 1.00000E+01
 -1        16 5.96880E+01 3.60344E-13 1.00000E+01
 -1        17 1.50000E+01 0.00000E+00 1.00000E+01
 -1        18 1.10000E+02 8.05341E-26 1.00000E+01
 -1        19 2.03998E+01 1.44516E+01 0.00000E+00
 -1        20 1.78749E+01 1.74782E+01 0.00000E+00
 -1        21 1.49056E+01 2.00705E+01 0.00000E+00
 -1        22 1.15658E+01 2.21638E+01 0.00000E+00
 -1        23 7.93850E+00 2.37061E+01 0.00000E+00
 -1        24 4.11387E+00 2.46592E+01 0.00000E+00
 -1        25 1.86976E-01 2.49993E+01 0.00000E+00
 -1        26-3.74457E+00 2.47180E+01 0.00000E+00
 -1        27-7.58303E+00 2.38222E+01 0.00000E+00
 -1        28-1.12330E+01 2.23343E+01 0.00000E+00
 -1        29-1.46037E+01 2.02912E+01 0.00000E+00
 -1        30-1.76114E+01 1.77437E+01 0.00000E+00
 -1        31-2.01814E+01 1.47551E+01 0.00000E+00
 -1        32-2.22496E+01 1.13997E+01 0.00000E+00
 -1        33-2.37648E+01 7.76098E+00 0.00000E+00
 -1        34-2.46893E+01 3.92933E+00 0.00000E+00
 -1        35-2.50000E+01 1.41638E-14 0.00000E+00
 -1        36-2.46893E+01-3.92933E+00 0.00000E+00
 -1        37-2.37648E+01-7.76098E+00 0.00000E+00
 -1        38-2.22496E+01-1.13997E+01 0.00000E+00
 -1        39-2.01814E+01-1.47551E+01 0.00000E+00
 -1        40-1.76114E+01-1.77437E+01 0.00000E+00
 -1        41-1.46037E+01-2.02912E+01 0.00000E+00
 -1        42-1.12330E+01-2.23343E+01 0.00000E+00
 -1        43-7.58303E+00-2.38222E+01 0.00000E+00
 -1        44-3.74457E+00-2.47180E+01 0.00000E+00
 -1        45 1.86976E-01-2.49993E+01 0.00000E+00
 -1        46 4.11387E+00-2.46592E+01 0.00000E+00
 -1        47 7.93850E+00-2.37061E+01 0.00000E+00
 -1        48 1.15658E+01-2.21638E+01 0.00000E+00
 -1        49 1.49056E+01-2.00705E+01 0.00000E+00
 -1        50 1.78749E+01-1.74782E+01 0.00000E+00
 -1        51 2.03998E+01-1.44516E+01 0.00000E+00
 -1        52 2.14756E+01 1.27984E+01 0.00000E+00
 -1        53 1.91971E+01 1.60147E+01 0.00000E+00
 -1        54 1.64414E+01 1.88330E+01 0.00000E+00
 -1        55 1.32770E+01 2.11830E+01 0.00000E+00
 -1        56 9.78260E+00 2.30065E+01 0.00000E+00
 -1        57 6.04500E+00 2.42582E+01 0.00000E+00
 -1        58 2.15714E+00 2.49068E+01 0.00000E+00
 -1        59-1.78435E+00 2.49362E+01 0.00000E+00
 -1        60-5.68148E+00 2.43459E+01 0.00000E+00
 -1        61-9.43738E+00 2.31503E+01 0.00000E+00
 -1        62-1.29587E+01 2.13793E+01 0.00000E+00
 -1        63-1.61579E+01 1.90768E+01 0.00000E+00
 -1        64-1.89554E+01 1.63001E+01 0.00000E+00
 -1        65-2.12817E+01 1.31182E+01 0.00000E+00
 -1        66-2.30791E+01 9.61026E+00 0.00000E+00
 -1        67-2.43027E+01 5.86340E+00 0.00000E+00
 -1        68-2.49222E+01 1.97080E+00 0.00000E+00
 -1        69-2.49222E+01-1.97080E+00 0.00000E+00
 -1        70-2.43027E+01-5.86340E+00 0.00000E+00
 -1        71-2.30791E+01-9.61026E+00 0.00000E+00
 -1        72-2.12817E+01-1.31182E+01 0.00000E+00
 -1        73-1.89554E+01-1.63001E+01 0.00000E+00
 -1        74-1.61579E+01-1.90768E+01 0.00000E+00
 -1        75-1.29587E+01-2.13793E+01 0.00000E+00
 -1        76-9.43738E+00-2.31503E+01 0.00000E+00
 -1        77-5.68148E+00-2.43459E+01 0.00000E+00
 -1        78-1.78435E+00-2.49362E+01 0.00000E+00
 -1        79 2.15714E+00-2.49068E+01 0.00000E+00
 -1        80 6.04500E+00-2.42582E+01 0.00000E+00
 -1        81 9.78260E+00-2.30065E+01 0.00000E+00
 -1        82 1.32770E+01-2.11830E+01 0.00000E+00
 -1        83 1.64414E+01-1.88330E+01 0.00000E+00
 -1        84 1.91971E+01-1.60147E+01 0.00000E+00
 -1        85 2.14756E+01-1.27984E+01 0.00000E+00
 -1        86 2.24177E+01 1.10656E+01 3.33333E+00
 -1        87 2.24177E+01 1.10656E+01 6.66667E+00
 -1        88 2.24177E+01 1.10656E+01 1.66667E+00
 -1        89 2.24177E+01 1.10656E+01 5.00000E+00
 -1        90 2.24177E+01 1.10656E+01 8.33333E+00
 -1        91 2.24177E+01-1.10656E+01 3.33333E+00
 -1        92 2.24177E+01-1.10656E+01 6.66667E+00
 -1        93 2.24177E+01-1.10656E+01 1.66667E+00
 -1        94 2.24177E+01-1.10656E+01 5.00000E+00
 -1        95 2.24177E+01-1.10656E+01 8.33333E+00
 -1        96 2.03998E+01 1.44516E+01 1.00000E+01
 -1        97 1.78749E+01 1.74782E+01 1.00000E+01
 -1        98 1.49056E+01 2.00705E+01 1.00000E+01
 -1        99 1.15658E+01 2.21638E+01 1.00000E+01
 -1       100 7.93850E+00 2.37061E+01 1.00000E+01
 -1       101 4.11387E+00 2.46592E+01 1.00000E+01
 -1       102 1.86976E-01 2.49993E+01 1.00000E+01
 -1       103-3.74457E+00 2.47180E+01 1.00000E+01
 -1       104-7.58303E+00 2.38222E+01 1.00000E+01
 -1       105-1.12330E+01 2.23343E+01 1.00000E+01
 -1       106-1.46037E+01 2.02912E+01 1.00000E+01
 -1       107-1.76114E+01 1.77437E+01 1.00000E+01
 -1       108-2.01814E+01 1.47551E+01 1.00000E+01
 -1       109-2.22496E+01 1.13997E+01 1.00000E+01
 -1       110-2.37648E+01 7.76098E+00 1.00000E+01
 -1       111-2.46893E+01 3.92933E+00 1.00000E+01
 -1       112-2.50000E+01 1.41638E-14 1.00000E+01
 -1       113-2.46893E+01-3.92933E+00 1.00000E+01
 -1       114-2.37648E+01-7.76098E+00 1.00000E+01
 -1       115-2.22496E+01-1.13997E+01 1.00000E+01
 -1       116-2.01814E+01-1.47551E+01 1.00000E+01
 -1       117-1.76114E+01-1.77437E+01 1.00000E+01
 -1       118-1.46037E+01-2.02912E+01 1.00000E+01
 -1       119-1.12330E+01-2.23343E+01 1.00000E+01
 -1       120-7.58303E+00-2.38222E+01 1.00000E+01
 -1       121-3.74457E+00-2.47180E+01 1.00000E+01
 -1       122 1.86976E-01-2.49993E+01 1.00000E+01
 -1       123 4.11387E+00-2.46592E+01 1.00000E+01
 -1       124 7.93850E+00-2.37061E+01 1.00000E+01
 -1       125 1.15658E+01-2.21638E+01 1.00000E+01
 -1       126 1.49056E+01-2.00705E+01 1.00000E+01
 -1       127 1.78749E+01-1.74782E+01 1.00000E+01
 -1       128 2.03998E+01-1.44516E+01 1.00000E+01
 -1       129 2.14756E+01 1.27984E+01 1.00000E+01
 -1       130 1.91971E+01 1.60147E+01 1.00000E+01
 -1       131 1.64414E+01 1.88330E+01 1.00000E+01
 -1       132 1.32770E+01 2.11830E+01 1.00000E+01
 -1       133 9.78260E+00 2.30065E+01 1.00000E+01
 -1       134 6.04500E+00 2.42582E+01 1.00000E+01
 -1       135 2.15714E+00 2.49068E+01 1.00000E+01
 -1       136-1.78435E+00 2.49362E+01 1.00000E+01
 -1       137-5.68148E+00 2.43459E+01 1.00000E+01
 -1       138-9.43738E+00 2.31503E+01 1.00000E+01
 -1       139-1.29587E+01 2.13793E+01 1.00000E+01
 -1       140-1.61579E+01 1.90768E+01 1.00000E+01
 -1       141-1.89554E+01 1.63001E+01 1.00000E+01
 -1       142-2.12817E+01 1.31182E+01 1.00000E+01
 -1       143-2.30791E+01 9.61026E+00 1.00000E+01
 -1       144-2.43027E+01 5.86340E+00 1.00000E+01
 -1       145-2.49222E+01 1.97080E+00 1.00000E+01
 -1       146-2.49222E+01-1.97080E+00 1.00000E+01
 -1       147-2.43027E+01-5.86340E+00 1.00000E+01
 -1       148-2.30791E+01-9.61026E+00 1.00000E+01
 -1       149-2.12817E+01-1.31182E+01 1.00000E+01
 -1       150-1.89554E+01-1.63001E+01 1.00000E+01
 -1       151-1.61579E+01-1.90768E+01 1.00000E+01
 -1       152-1.29587E+01-2.13793E+01 1.00000E+01
 -1       153-9.43738E+00-2.31503E+01 1.00000E+01
 -1       154-5.68148E+00-2.43459E+01 1.00000E+01
 -1       155-1.78435E+00-2.49362E+01 1.00000E+01
 -1       156 2.15714E+00-2.49068E+01 1.00000E+01
 -1       157 6.04500E+00-2.42582E+01 1.00000E+01
 -1       158 9.78260E+00-2.30065E+01 1.00000E+01
 -1       159 1.32770E+01-2.11830E+01 1.00000E+01
 -1       160 1.64414E+01-1.88330E+01 1.00000E+01
 -1       161 1.91971E+01-1.60147E+01 1.00000E+01
 -1       162 2.14756E+01-1.27984E+01 1.00000E+01
 -1       163 2.31224E+01 1.02732E+01 0.00000E+00
 -1       164 2.27165E+01 1.06219E+01 0.00000E+00
 -1       165 2.36061E+01 1.00446E+01 0.00000E+00
 -1       166 2.31224E+01-1.02732E+01 0.00000E+00
 -1       167 2.27165E+01-1.06219E+01 0.00000E+00
 -1       168 2.36061E+01-1.00446E+01 0.00000E+00
 -1       169 2.80629E+01 9.79913E+00 0.00000E+00
 -1       170 3.19927E+01 9.64585E+00 0.00000E+00
 -1       171 3.59225E+01 9.49258E+00 0.00000E+00
 -1       172 3.98523E+01 9.33930E+00 0.00000E+00
 -1       173 4.37820E+01 9.18603E+00 0.00000E+00
 -1       174 4.77118E+01 9.03275E+00 0.00000E+00
 -1       175 5.16416E+01 8.87948E+00 0.00000E+00
 -1       176 5.55714E+01 8.72620E+00 0.00000E+00
 -1       177 5.95012E+01 8.57293E+00 0.00000E+00
 -1       178 6.34309E+01 8.41965E+00 0.00000E+00
 -1       179 6.73607E+01 8.26638E+00 0.00000E+00
 -1       180 7.12905E+01 8.11310E+00 0.00000E+00
 -1       181 7.52203E+01 7.95983E+00 0.00000E+00
 -1       182 7.91501E+01 7.80655E+00 0.00000E+00
 -1       183 8.30798E+01 7.65328E+00 0.00000E+00
 -1       184 2.60980E+01 9.87577E+00 0.00000E+00
 -1       185 3.00278E+01 9.72249E+00 0.00000E+00
 -1       186 3.39576E+01 9.56922E+00 0.00000E+00
 -1       187 3.78874E+01 9.41594E+00 0.00000E+00
 -1       188 4.18171E+01 9.26267E+00 0.00000E+00
 -1       189 4.57469E+01 9.10939E+00 0.00000E+00
 -1       190 4.96767E+01 8.95612E+00 0.00000E+00
 -1       191 5.36065E+01 8.80284E+00 0.00000E+00
 -1       192 5.75363E+01 8.64957E+00 0.00000E+00
 -1       193 6.14660E+01 8.49629E+00 0.00000E+00
 -1       194 6.53958E+01 8.34301E+00 0.00000E+00
 -1       195 6.93256E+01 8.18974E+00 0.00000E+00
 -1       196 7.32554E+01 8.03646E+00 0.00000E+00
 -1       197 7.71852E+01 7.88319E+00 0.00000E+00
 -1       198 8.11149E+01 7.72991E+00 0.00000E+00
 -1       199 8.50447E+01 7.57664E+00 0.00000E+00
 -1       200 2.80629E+01-9.79913E+00 0.00000E+00
 -1       201 3.19927E+01-9.64585E+00 0.00000E+00
 -1       202 3.59225E+01-9.49258E+00 0.00000E+00
 -1       203 3.98523E+01-9.33930E+00 0.00000E+00
 -1       204 4.37820E+01-9.18603E+00 0.00000E+00
 -1       205 4.77118E+01-9.03275E+00 0.00000E+00
 -1       206 5.16416E+01-8.87948E+00 0.00000E+00
 -1       207 5.55714E+01-8.72620E+00 0.00000E+00
 -1       208 5.95012E+01-8.57293E+00 0.00000E+00
 -1       209 6.34309E+01-8.41965E+00 0.00000E+00
 -1       210 6.73607E+01-8.26638E+00 0.00000E+00
 -1       211 7.12905E+01-8.11310E+00 0.00000E+00
 -1       212 7.52203E+01-7.95983E+00 0.00000E+00
 -1       213 7.91501E+01-7.80655E+00 0.00000E+00
 -1       214 8.30798E+01-7.65328E+00 0.00000E+00
 -1       215 2.60980E+01-9.87577E+00 0.00000E+00
 -1       216 3.00278E+01-9.72249E+00 0.00000E+00
 -1       217 3.39576E+01-9.56922E+00 0.00000E+00
 -1       218 3.78874E+01-9.41594E+00 0.00000E+00
 -1       219 4.18171E+01-9.26267E+00 0.00000E+00
 -1       220 4.57469E+01-9.10939E+00 0.00000E+00
 -1       221 4.96767E+01-8.95612E+00 0.00000E+00
 -1       222 5.36065E+01-8.80284E+00 0.00000E+00
 -1       223 5.75363E+01-8.64957E+00 0.00000E+00
 -1       224 6.14660E+01-8.49629E+00 0.00000E+00
 -1       225 6.53958E+01-8.34301E+00 0.00000E+00
 -1       226 6.93256E+01-8.18974E+00 0.00000E+00
 -1       227 7.32554E+01-8.03646E+00 0.00000E+00
 -1       228 7.71852E+01-7.88319E+00 0.00000E+00
 -1       229 8.11149E+01-7.72991E+00 0.00000E+00
 -1       230 8.50447E+01-7.57664E+00 0.00000E+00
 -1       231 8.93934E+01-1.06066E+01 0.00000E+00
 -1       232 9.25000E+01-1.29904E+01 0.00000E+00
 -1       233 9.61177E+01-1.44889E+01 0.00000E+00
 -1       234 1.00000E+02-1.50000E+01 0.00000E+00
 -1       235 1.03882E+02-1.44889E+01 0.00000E+00
 -1       236 1.07500E+02-1.29904E+01 0.00000E+00
 -1       237 1.10607E+02-1.06066E+01 0.00000E+00
 -1       238 1.12990E+02-7.50000E+00 0.00000E+00
 -1       239 1.14489E+02-3.88229E+00 0.00000E+00
 -1       240 1.15000E+02-1.69966E-14 0.00000E+00
 -1       241 1.14489E+02 3.88229E+00 0.00000E+00
 -1       242 1.12990E+02 7.50000E+00 0.00000E+00
 -1       243 1.10607E+02 1.06066E+01 0.00000E+00
 -1       244 1.07500E+02 1.29904E+01 0.00000E+00
 -1       245 1.03882E+02 1.44889E+01 0.00000E+00
 -1       246 1.00000E+02 1.50000E+01 0.00000E+00
 -1       247 9.61177E+01 1.44889E+01 0.00000E+00
 -1       248 9.25000E+01 1.29904E+01 0.00000E+00
 -1       249 8.93934E+01 1.06066E+01 0.00000E+00
 -1       250 8.80997E+01-9.13142E+00 0.00000E+00
 -1       251 9.08686E+01-1.19003E+01 0.00000E+00
 -1       252 9.42598E+01-1.38582E+01 0.00000E+00
 -1       253 9.80421E+01-1.48717E+01 0.00000E+00
 -1       254 1.01958E+02-1.48717E+01 0.00000E+00
 -1       255 1.05740E+02-1.38582E+01 0.00000E+00
 -1       256 1.09131E+02-1.19003E+01 0.00000E+00
 -1       257 1.11900E+02-9.13142E+00 0.00000E+00
 -1       258 1.13858E+02-5.74025E+00 0.00000E+00
 -1       259 1.14872E+02-1.95789E+00 0.00000E+00
 -1       260 1.14872E+02 1.95789E+00 0.00000E+00
 -1       261 1.13858E+02 5.74025E+00 0.00000E+00
 -1       262 1.11900E+02 9.13142E+00 0.00000E+00
 -1       263 1.09131E+02 1.19003E+01 0.00000E+00
 -1       264 1.05740E+02 1.38582E+01 0.00000E+00
 -1       265 1.01958E+02 1.48717E+01 0.00000E+00
 -1       266 9.80421E+01 1.48717E+01 0.00000E+00
 -1       267 9.42598E+01 1.38582E+01 0.00000E+00
 -1       268 9.08686E+01 1.19003E+01 0.00000E+00
 -1       269 8.80997E+01 9.13142E+00 0.00000E+00
 -1       270 5.80099E+01 3.48462E+00 0.00000E+00
 -1       271 5.42392E+01 4.34525E+00 0.00000E+00
 -1       272 5.12154E+01 1.93382E+00 0.00000E+00
 -1       273 5.12154E+01-1.93382E+00 0.00000E+00
 -1       274 5.42392E+01-4.34525E+00 0.00000E+00
 -1       275 5.80099E+01-3.48462E+00 0.00000E+00
 -1       276 5.92466E+01 1.93382E+00 0.00000E+00
 -1       277 5.62228E+01 4.34525E+00 0.00000E+00
 -1       278 5.24521E+01 3.48462E+00 0.00000E+00
 -1       279 5.07740E+01 3.80683E-13 0.00000E+00
 -1       280 5.24521E+01-3.48462E+00 0.00000E+00
 -1       281 5.62228E+01-4.34525E+00 0.00000E+00
 -1       282 5.92466E+01-1.93382E+00 0.00000E+00
 -1       283 1.44889E+01 3.88229E+00 0.00000E+00
 -1       284 1.29904E+01 7.50000E+00 0.00000E+00
 -1       285 1.06066E+01 1.06066E+01 0.00000E+00
 -1       286 7.50000E+00 1.29904E+01 0.00000E+00
 -1       287 3.88229E+00 1.44889E+01 0.00000E+00
 -1       288 7.57982E-15 1.50000E+01 0.00000E+00
 -1       289-3.88229E+00 1.44889E+01 0.00000E+00
 -1       290-7.50000E+00 1.29904E+01 0.00000E+00
 -1       291-1.06066E+01 1.06066E+01 0.00000E+00
 -1       292-1.29904E+01 7.50000E+00 0.00000E+00
 -1       293-1.44889E+01 3.88229E+00 0.00000E+00
 -1       294-1.50000E+01 6.84504E-14 0.00000E+00
 -1       295-1.44889E+01-3.88229E+00 0.00000E+00
 -1       296-1.29904E+01-7.50000E+00 0.00000E+00
 -1       297-1.06066E+01-1.06066E+01 0.00000E+00
 -1       298-7.50000E+00-1.29904E+01 0.00000E+00
 -1       299-3.88229E+00-1.44889E+01 0.00000E+00
 -1       300-9.60142E-14-1.50000E+01 0.00000E+00
 -1       301 3.88229E+00-1.44889E+01 0.00000E+00
 -1       302 7.50000E+00-1.29904E+01 0.00000E+00
 -1       303 1.06066E+01-1.06066E+01 0.00000E+00
 -1       304 1.29904E+01-7.50000E+00 0.00000E+00
 -1       305 1.44889E+01-3.88229E+00 0.00000E+00
 -1       306 1.48717E+01 1.95789E+00 0.00000E+00
 -1       307 1.38582E+01 5.74025E+00 0.00000E+00
 -1       308 1.19003E+01 9.13142E+00 0.00000E+00
 -1       309 9.13142E+00 1.19003E+01 0.00000E+00
 -1       310 5.74025E+00 1.38582E+01 0.00000E+00
 -1       311 1.95789E+00 1.48717E+01 0.00000E+00
 -1       312-1.95789E+00 1.48717E+01 0.00000E+00
 -1       313-5.74025E+00 1.38582E+01 0.00000E+00
 -1       314-9.13142E+00 1.19003E+01 0.00000E+00
 -1       315-1.19003E+01 9.13142E+00 0.00000E+00
 -1       316-1.38582E+01 5.74025E+00 0.00000E+00
 -1       317-1.48717E+01 1.95789E+00 0.00000E+00
 -1       318-1.48717E+01-1.95789E+00 0.00000E+00
 -1       319-1.38582E+01-5.74025E+00 0.00000E+00
 -1       320-1.19003E+01-9.13142E+00 0.00000E+00
 -1       321-9.13142E+00-1.19003E+01 0.00000E+00
 -1       322-5.74025E+00-1.38582E+01 0.00000E+00
 -1       323-1.95789E+00-1.48717E+01 0.00000E+00
 -1       324 1.95789E+00-1.48717E+01 0.00000E+00
 -1       325 5.74025E+00-1.38582E+01 0.00000E+00
 -1       326 9.13142E+00-1.19003E+01 0.00000E+00
 -1       327 1.19003E+01-9.13142E+00 0.00000E+00
 -1       328 1.38582E+01-5.74025E+00 0.00000E+00
 -1       329 1.48717E+01-1.95789E+00 0.00000E+00
 -1       330 1.09239E+02 3.82683E+00 0.00000E+00
 -1       331 1.07071E+02 7.07107E+00 0.00000E+00
 -1       332 1.03827E+02 9.23880E+00 0.00000E+00
 -1       333 1.00000E+02 1.00000E+01 0.00000E+00
 -1       334 9.61732E+01 9.23880E+00 0.00000E+00
 -1       335 9.29289E+01 7.07107E+00 0.00000E+00
 -1       336 9.07612E+01 3.82683E+00 0.00000E+00
 -1       337 9.00000E+01 5.45154E-14 0.00000E+00
 -1       338 9.07612E+01-3.82683E+00 0.00000E+00
 -1       339 9.29289E+01-7.07107E+00 0.00000E+00
 -1       340 9.61732E+01-9.23880E+00 0.00000E+00
 -1       341 1.00000E+02-1.00000E+01 0.00000E+00
 -1       342 1.03827E+02-9.23880E+00 0.00000E+00
 -1       343 1.07071E+02-7.07107E+00 0.00000E+00
 -1       344 1.09239E+02-3.82683E+00 0.00000E+00
 -1       345 1.09808E+02 1.95090E+00 0.00000E+00
 -1       346 1.08315E+02 5.55570E+00 0.00000E+00
 -1       347 1.05556E+02 8.31470E+00 0.00000E+00
 -1       348 1.01951E+02 9.80785E+00 0.00000E+00
 -1       349 9.80491E+01 9.80785E+00 0.00000E+00
 -1       350 9.44443E+01 8.31470E+00 0.00000E+00
 -1       351 9.16853E+01 5.55570E+00 0.00000E+00
 -1       352 9.01921E+01 1.95090E+00 0.00000E+00
 -1       353 9.01921E+01-1.95090E+00 0.00000E+00
 -1       354 9.16853E+01-5.55570E+00 0.00000E+00
 -1       355 9.44443E+01-8.31470E+00 0.00000E+00
 -1       356 9.80491E+01-9.80785E+00 0.00000E+00
 -1       357 1.01951E+02-9.80785E+00 0.00000E+00
 -1       358 1.05556E+02-8.31470E+00 0.00000E+00
 -1       359 1.08315E+02-5.55570E+00 0.00000E+00
 -1       360 1.09808E+02-1.95090E+00 0.00000E+00
 -1       361 2.41331E+01 9.95241E+00 3.33333E+00
 -1       362 2.41331E+01 9.95241E+00 6.66667E+00
 -1       363 2.41331E+01 9.95241E+00 1.66667E+00
 -1       364 2.41331E+01 9.95241E+00 5.00000E+00
 -1       365 2.41331E+01 9.95241E+00 8.33333E+00
 -1       366 2.31224E+01 1.02732E+01 1.00000E+01
 -1       367 2.27165E+01 1.06219E+01 1.00000E+01
 -1       368 2.36061E+01 1.00446E+01 1.00000E+01
 -1       369 2.41331E+01-9.95241E+00 3.33333E+00
 -1       370 2.41331E+01-9.95241E+00 6.66667E+00
 -1       371 2.41331E+01-9.95241E+00 1.66667E+00
 -1       372 2.41331E+01-9.95241E+00 5.00000E+00
 -1       373 2.41331E+01-9.95241E+00 8.33333E+00
 -1       374 2.31224E+01-1.02732E+01 1.00000E+01
 -1       375 2.27165E+01-1.06219E+01 1.00000E+01
 -1       376 2.36061E+01-1.00446E+01 1.00000E+01
 -1       377 2.80629E+01 9.79913E+00 1.00000E+01
 -1       378 3.19927E+01 9.64585E+00 1.00000E+01
 -1       379 3.59225E+01 9.49258E+00 1.00000E+01
 -1       380 3.98523E+01 9.33930E+00 1.00000E+01
 -1       381 4.37820E+01 9.18603E+00 1.00000E+01
 -1       382 4.77118E+01 9.03275E+00 1.00000E+01
 -1       383 5.16416E+01 8.87948E+00 1.00000E+01
 -1       384 5.55714E+01 8.72620E+00 1.00000E+01
 -1       385 5.95012E+01 8.57293E+00 1.00000E+01
 -1       386 6.34309E+01 8.41965E+00 1.00000E+01
 -1       387 6.73607E+01 8.26638E+00 1.00000E+01
 -1       388 7.12905E+01 8.11310E+00 1.00000E+01
 -1       389 7.52203E+01 7.95983E+00 1.00000E+01
 -1       390 7.91501E+01 7.80655E+00 1.00000E+01
 -1       391 8.30798E+01 7.65328E+00 1.00000E+01
 -1       392 2.60980E+01 9.87577E+00 1.00000E+01
 -1       393 3.00278E+01 9.72249E+00 1.00000E+01
 -1       394 3.39576E+01 9.56922E+00 1.00000E+01
 -1       395 3.78874E+01 9.41594E+00 1.00000E+01
 -1       396 4.18171E+01 9.26267E+00 1.00000E+01
 -1       397 4.57469E+01 9.10939E+00 1.00000E+01
 -1       398 4.96767E+01 8.95612E+00 1.00000E+01
 -1       399 5.36065E+01 8.80284E+00 1.00000E+01
 -1       400 5.75363E+01 8.64957E+00 1.00000E+01
 -1       401 6.14660E+01 8.49629E+00 1.00000E+01
 -1       402 6.53958E+01 8.34301E+00 1.00000E+01
 -1       403 6.93256E+01 8.18974E+00 1.00000E+01
 -1       404 7.32554E+01 8.03646E+00 1.00000E+01
 -1       405 7.71852E+01 7.88319E+00 1.00000E+01
 -1       406 8.11149E+01 7.72991E+00 1.00000E+01
 -1       407 8.50447E+01 7.57664E+00 1.00000E+01
 -1       408 2.80629E+01-9.79913E+00 1.00000E+01
 -1       409 3.19927E+01-9.64585E+00 1.00000E+01
 -1       410 3.59225E+01-9.49258E+00 1.00000E+01
 -1       411 3.98523E+01-9.33930E+00 1.00000E+01
 -1       412 4.37820E+01-9.18603E+00 1.00000E+01
 -1       413 4.77118E+01-9.03275E+00 1.00000E+01
 -1       414 5.16416E+01-8.87948E+00 1.00000E+01
 -1       415 5.55714E+01-8.72620E+00 1.00000E+01
 -1       416 5.95012E+01-8.57293E+00 1.00000E+01
 -1       417 6.34309E+01-8.41965E+00 1.00000E+01
 -1       418 6.73607E+01-8.26638E+00 1.00000E+01
 -1       419 7.12905E+01-8.11310E+00 1.00000E+01
 -1       420 7.52203E+01-7.95983E+00 1.00000E+01
 -1       421 7.91501E+01-7.80655E+00 1.00000E+01
 -1       422 8.30798E+01-7.65328E+00 1.00000E+01
 -1       423 2.60980E+01-9.87577E+00 1.00000E+01
 -1       424 3.00278E+01-9.72249E+00 1.00000E+01
 -1       425 3.39576E+01-9.56922E+00 1.00000E+01
 -1       426 3.78874E+01-9.41594E+00 1.00000E+01
 -1       427 4.18171E+01-9.26267E+00 1.00000E+01
 -1       428 4.57469E+01-9.10939E+00 1.00000E+01
 -1       429 4.96767E+01-8.95612E+00 1.00000E+01
 -1       430 5.36065E+01-8.80284E+00 1.00000E+01
 -1       431 5.75363E+01-8.64957E+00 1.00000E+01
 -1       432 6.14660E+01-8.49629E+00 1.00000E+01
 -1       433 6.53958E+01-8.34301E+00 1.00000E+01
 -1       434 6.93256E+01-8.18974E+00 1.00000E+01
 -1       435 7.32554E+01-8.03646E+00 1.00000E+01
 -1       436 7.71852E+01-7.88319E+00 1.00000E+01
 -1       437 8.11149E+01-7.72991E+00 1.00000E+01
 -1       438 8.50447E+01-7.57664E+00 1.00000E+01
 -1       439 8.93934E+01-1.06066E+01 1.00000E+01
 -1       440 9.25000E+01-1.29904E+01 1.00000E+01
 -1       441 9.61177E+01-1.44889E+01 1.00000E+01
 -1       442 1.00000E+02-1.50000E+01 1.00000E+01
 -1       443 1.03882E+02-1.44889E+01 1.00000E+01
 -1       444 1.07500E+02-1.29904E+01 1.00000E+01
 -1       445 1.10607E+02-1.06066E+01 1.00000E+01
 -1       446 1.12990E+02-7.50000E+00 1.00000E+01
 -1       447 1.14489E+02-3.88229E+00 1.00000E+01
 -1       448 1.15000E+02-1.69966E-14 1.00000E+01
 -1       449 1.14489E+02 3.88229E+00 1.00000E+01
 -1       450 1.12990E+02 7.50000E+00 1.00000E+01
 -1       451 1.10607E+02 1.06066E+01 1.00000E+01
 -1       452 1.07500E+02 1.29904E+01 1.00000E+01
 -1       453 1.03882E+02 1.44889E+01 1.00000E+01
 -1       454 1.00000E+02 1.50000E+01 1.00000E+01
 -1       455 9.61177E+01 1.44889E+01 1.00000E+01
 -1       456 9.25000E+01 1.29904E+01 1.00000E+01
 -1       457 8.93934E+01 1.06066E+01 1.00000E+01
 -1       458 8.80997E+01-9.13142E+00 1.00000E+01
 -1       459 9.08686E+01-1.19003E+01 1.00000E+01
 -1       460 9.42598E+01-1.38582E+01 1.00000E+01
 -1       461 9.80421E+01-1.48717E+01 1.00000E+01
 -1       462 1.01958E+02-1.48717E+01 1.00000E+01
 -1       463 1.05740E+02-1.38582E+01 1.00000E+01
 -1       464 1.09131E+02-1.19003E+01 1.00000E+01
 -1       465 1.11900E+02-9.13142E+00 1.00000E+01
 -1       466 1.13858E+02-5.74025E+00 1.00000E+01
 -1       467 1.14872E+02-1.95789E+00 1.00000E+01
 -1       468 1.14872E+02 1.95789E+00 1.00000E+01
 -1       469 1.13858E+02 5.74025E+00 1.00000E+01
 -1       470 1.11900E+02 9.13142E+00 1.00000E+01
 -1       471 1.09131E+02 1.19003E+01 1.00000E+01
 -1       472 1.05740E+02 1.38582E+01 1.00000E+01
 -1       473 1.01958E+02 1.48717E+01 1.00000E+01
 -1       474 9.80421E+01 1.48717E+01 1.00000E+01
 -1       475 9.42598E+01 1.38582E+01 1.00000E+01
 -1       476 9.08686E+01 1.19003E+01 1.00000E+01
 -1       477 8.80997E+01 9.13142E+00 1.00000E+01
 -1       478 5.80099E+01 3.48462E+00 1.00000E+01
 -1       479 5.42392E+01 4.34525E+00 1.00000E+01
 -1       480 5.12154E+01 1.93382E+00 1.00000E+01
 -1       481 5.12154E+01-1.93382E+00 1.00000E+01
 -1       482 5.42392E+01-4.34525E+00 1.00000E+01
 -1       483 5.80099E+01-3.48462E+00 1.00000E+01
 -1       484 5.92466E+01 1.93382E+00 1.00000E+01
 -1       485 5.62228E+01 4.34525E+00 1.00000E+01
 -1       486 5.24521E+01 3.48462E+00 1.00000E+01
 -1       487 5.07740E+01 3.80683E-13 1.00000E+01
 -1       488 5.24521E+01-3.48462E+00 1.00000E+01
 -1       489 5.62228E+01-4.34525E+00 1.00000E+01
 -1       490 5.92466E+01-1.93382E+00 1.00000E+01
 -1       491 1.44889E+01 3.88229E+00 1.00000E+01
 -1       492 1.29904E+01 7.50000E+00 1.00000E+01
 -1       493 1.06066E+01 1.06066E+01 1.00000E+01
 -1       494 7.50000E+00 1.29904E+01 1.00000E+01
 -1       495 3.88229E+00 1.44889E+01 1.00000E+01
 -1       496 7.57982E-15 1.50000E+01 1.00000E+01
 -1       497-3.88229E+00 1.44889E+01 1.00000E+01
 -1       498-7.50000E+00 1.29904E+01 1.00000E+01
 -1       499-1.06066E+01 1.06066E+01 1.00000E+01
 -1       500-1.29904E+01 7.50000E+00 1.00000E+01
 -1       501-1.44889E+01 3.88229E+00 1.00000E+01
 -1       502-1.50000E+01 6.84504E-14 1.00000E+01
 -1       503-1.44889E+01-3.88229E+00 1.00000E+01
 -1       504-1.29904E+01-7.50000E+00 1.00000E+01
 -1       505-1.06066E+01-1.06066E+01 1.00000E+01
 -1       506-7.50000E+00-1.29904E+01 1.00000E+01
 -1       507-3.88229E+00-1.44889E+01 1.00000E+01
 -1       508-9.60142E-14-1.50000E+01 1.00000E+01
 -1       509 3.88229E+00-1.44889E+01 1.00000E+01
 -1       510 7.50000E+00-1.29904E+01 1.00000E+01
 -1       511 1.06066E+01-1.06066E+01 1.00000E+01
 -1       512 1.29904E+01-7.50000E+00 1.00000E+01
 -1       513 1.44889E+01-3.88229E+00 1.00000E+01
 -1       514 1.48717E+01 1.95789E+00 1.00000E+01
 -1       515 1.38582E+01 5.74025E+00 1.00000E+01
 -1       516 1.19003E+01 9.13142E+00 1.00000E+01
 -1       517 9.13142E+00 1.19003E+01 1.00000E+01
 -1       518 5.74025E+00 1.38582E+01 1.00000E+01
 -1       519 1.95789E+00 1.48717E+01 1.00000E+01
 -1       520-1.95789E+00 1.48717E+01 1.00000E+01
 -1       521-5.74025E+00 1.38582E+01 1.00000E+01
 -1       522-9.13142E+00 1.19003E+01 1.00000E+01
 -1       523-1.19003E+01 9.13142E+00 1.00000E+01
 -1       524-1.38582E+01 5.74025E+00 1.00000E+01
 -1       525-1.48717E+01 1.95789E+00 1.00000E+01
 -1       526-1.48717E+01-1.95789E+00 1.00000E+01
 -1       527-1.38582E+01-5.74025E+00 1.00000E+01
 -1       528-1.19003E+01-9.13142E+00 1.00000E+01
 -1       529-9.13142E+00-1.19003E+01 1.00000E+01
 -1       530-5.74025E+00-1.38582E+01 1.00000E+01
 -1       531-1.95789E+00-1.48717E+01 1.00000E+01
 -1       532 1.95789E+00-1.48717E+01 1.00000E+01
 -1       533 5.74025E+00-1.38582E+01 1.00000E+01
 -1       534 9.13142E+00-1.19003E+01 1.00000E+01
 -1       535 1.19003E+01-9.13142E+00 1.00000E+01
 -1       536 1.38582E+01-5.74025E+00 1.00000E+01
 -1       537 1.48717E+01-1.95789E+00 1.00000E+01
 -1       538 1.09239E+02 3.82683E+00 1.00000E+01
 -1       539 1.07071E+02 7.07107E+00 1.00000E+01
 -1       540 1.03827E+02 9.23880E+00 1.00000E+01
 -1       541 1.00000E+02 1.00000E+01 1.00000E+01
 -1       542 9.61732E+01 9.23880E+00 1.00000E+01
 -1       543 9.29289E+01 7.07107E+00 1.00000E+01
 -1       544 9.07612E+01 3.82683E+00 1.00000E+01
 -1       545 9.00000E+01 5.45154E-14 1.00000E+01
 -1       546 9.07612E+01-3.82683E+00 1.00000E+01
 -1       547 9.29289E+01-7.07107E+00 1.00000E+01
 -1       548 9.61732E+01-9.23880E+00 1.00000E+01
 -1       549 1.00000E+02-1.00000E+01 1.00000E+01
 -1       550 1.03827E+02-9.23880E+00 1.00000E+01
 -1       551 1.07071E+02-7.07107E+00 1.00000E+01
 -1       552 1.09239E+02-3.82683E+00 1.00000E+01
 -1       553 1.09808E+02 1.95090E+00 1.00000E+01
 -1       554 1.08315E+02 5.55570E+00 1.00000E+01
 -1       555 1.05556E+02 8.31470E+00 1.00000E+01
 -1       556 1.01951E+02 9.80785E+00 1.00000E+01
 -1       557 9.80491E+01 9.80785E+00 1.00000E+01
 -1       558 9.44443E+01 8.31470E+00 1.00000E+01
 -1       559 9.16853E+01 5.55570E+00 1.00000E+01
 -1       560 9.01921E+01 1.95090E+00 1.00000E+01
 -1       561 9.01921E+01-1.95090E+00 1.00000E+01
 -1       562 9.16853E+01-5.55570E+00 1.00000E+01
 -1       563 9.44443E+01-8.31470E+00 1.00000E+01
 -1       564 9.80491E+01-9.80785E+00 1.00000E+01
 -1       565 1.01951E+02-9.80785E+00 1.00000E+01
 -1       566 1.05556E+02-8.31470E+00 1.00000E+01
 -1       567 1.08315E+02-5.55570E+00 1.00000E+01
 -1       568 1.09808E+02-1.95090E+00 1.00000E+01
 -1       569 8.70096E+01 7.50000E+00 3.33333E+00
 -1       570 8.70096E+01 7.50000E+00 6.66667E+00
 -1       571 8.70096E+01 7.50000E+00 1.66667E+00
 -1       572 8.70096E+01 7.50000E+00 5.00000E+00
 -1       573 8.70096E+01 7.50000E+00 8.33333E+00
 -1       574 8.70096E+01-7.50000E+00 3.33333E+00
 -1       575 8.70096E+01-7.50000E+00 6.66667E+00
 -1       576 8.70096E+01-7.50000E+00 1.66667E+00
 -1       577 8.70096E+01-7.50000E+00 5.00000E+00
 -1       578 8.70096E+01-7.50000E+00 8.33333E+00
 -1       579 5.96880E+01 3.60344E-13 6.66667E+00
 -1       580 5.96880E+01 3.60344E-13 3.33333E+00
 -1       581 5.96880E+01 3.60344E-13 8.33333E+00
 -1       582 5.96880E+01 3.60344E-13 5.00000E+00
 -1       583 5.96880E+01 3.60344E-13 1.66667E+00